44
Lattice="31.759999999999998 0.0 0.0 0.0 31.759999999999998 0.0 0.0 0.0 31.759999999999998" Properties=species:S:1:pos:R:3:forces:R:3 energy=-218.0509033203125 free_energy=-218.0509033203125 stress="0.0015544923953711987 -7.703779942858091e-07 1.4788232647333643e-06 -7.703779942858091e-07 0.001556172501295805 -9.18063449262263e-07 1.4788232647333643e-06 -9.18063449262263e-07 0.001556611037813127" pbc="F F F"
Pt      10.00000000      15.88000000      15.88000000       2.12197351       0.00262761       0.00052940
Pt      11.96000000      13.92000000      15.88000000       0.62133443       0.39103344      -0.00709632
Pt      11.96000000      15.88000000      13.92000000       0.63251758      -0.00487555       0.38695863
Pt      11.96000000      15.88000000      17.84000000       0.62612325       0.00908648      -0.39105499
Pt      11.96000000      17.84000000      15.88000000       0.63450682      -0.39346316       0.00732249
Pt      13.92000000      11.96000000      15.88000000       0.38547590       0.62139082      -0.00042526
Pt      15.88000000      10.00000000      15.88000000      -0.00215164       2.11618614       0.00196109
Pt      15.88000000      11.96000000      13.92000000       0.00139133       0.62664282       0.39144498
Pt      15.88000000      11.96000000      17.84000000      -0.00153245       0.62515485      -0.38787135
Pt      13.92000000      15.88000000      11.96000000       0.38612252       0.00294136       0.62118065
Pt      15.88000000      13.92000000      11.96000000      -0.00077760       0.38812289       0.62540919
Pt      15.88000000      15.88000000      10.00000000      -0.00323313       0.00390058       2.12563324
Pt      13.92000000      13.92000000      13.92000000      -0.26361245      -0.26116398      -0.25748080
Pt      13.92000000      15.88000000      15.88000000       0.87903184      -0.00449442      -0.00244188
Pt      15.88000000      13.92000000      15.88000000      -0.00394786       0.88749242       0.00389763
Pt      15.88000000      15.88000000      13.92000000       0.00407810       0.00098048       0.88238573
Pt      13.92000000      13.92000000      17.84000000      -0.26009601      -0.26773724       0.25933933
Pt      13.92000000      15.88000000      19.80000000       0.37382561       0.00680470      -0.62547630
Pt      15.88000000      13.92000000      19.80000000      -0.00190364       0.37661886      -0.62709439
Pt      15.88000000      15.88000000      17.84000000      -0.00104104      -0.00645502      -0.88307720
Pt      15.88000000      15.88000000      21.76000000      -0.00297418       0.00473047      -2.09635162
Pt      15.88000000      17.84000000      11.96000000       0.00215394      -0.39069581       0.63436508
Pt      13.92000000      17.84000000      13.92000000      -0.26082551       0.25745079      -0.26305658
Pt      13.92000000      19.80000000      15.88000000       0.37068516      -0.62285465      -0.00136228
Pt      15.88000000      17.84000000      15.88000000       0.00374139      -0.88147414      -0.00677739
Pt      15.88000000      19.80000000      13.92000000       0.00544337      -0.63053495       0.37923610
Pt      13.92000000      17.84000000      17.84000000      -0.26805741       0.25836730       0.26363879
Pt      15.88000000      17.84000000      19.80000000      -0.00658833      -0.38415134      -0.63057995
Pt      15.88000000      19.80000000      17.84000000      -0.00027097      -0.62675220      -0.37855732
Pt      15.88000000      21.76000000      15.88000000      -0.00211235      -2.11064076       0.00364452
Pt      17.84000000      11.96000000      15.88000000      -0.39056259       0.62626439      -0.00884013
Pt      17.84000000      15.88000000      11.96000000      -0.39440191       0.00027384       0.62654889
Pt      17.84000000      13.92000000      13.92000000       0.26253036      -0.26494890      -0.26469904
Pt      17.84000000      15.88000000      15.88000000      -0.88613999       0.00808034      -0.00671105
Pt      19.80000000      13.92000000      15.88000000      -0.62489241       0.37023294      -0.00735897
Pt      19.80000000      15.88000000      13.92000000      -0.62233895       0.00338864       0.38353926
Pt      17.84000000      13.92000000      17.84000000       0.26568574      -0.27078047       0.26405358
Pt      17.84000000      15.88000000      19.80000000      -0.37920281       0.00301433      -0.62800491
Pt      19.80000000      15.88000000      17.84000000      -0.61969674       0.01128023      -0.38107765
Pt      17.84000000      17.84000000      13.92000000       0.26572782       0.26178449      -0.26511747
Pt      17.84000000      19.80000000      15.88000000      -0.38456231      -0.62484384      -0.00883571
Pt      19.80000000      17.84000000      15.88000000      -0.62696242      -0.38974684      -0.00016953
Pt      17.84000000      17.84000000      17.84000000       0.26933452       0.26448771       0.26825586
Pt      21.76000000      15.88000000      15.88000000      -2.10379839       0.00727406       0.00017340
44
Lattice="31.759999999999998 0.0 0.0 0.0 31.759999999999998 0.0 0.0 0.0 31.759999999999998" Properties=species:S:1:pos:R:3:forces:R:3 energy=-218.1546173095703 free_energy=-218.1546173095703 stress="0.0014274581335484982 1.9189603335689753e-05 -2.7666039386531338e-05 1.9189603335689753e-05 0.0014389887219294906 -5.2207783483027015e-06 -2.7666039386531338e-05 -5.2207783483027015e-06 0.0014634794788435102" pbc="F F F"
Pt      10.04316313      15.86068167      15.91628241       1.97313702      -0.01393303      -0.07263924
Pt      12.01430058      13.88391299      15.88914311       0.02952087       0.69413996       0.01260372
Pt      11.96000000      15.88000000      13.92000000       0.83658707      -0.05991674       0.53038937
Pt      11.96484178      15.88476654      17.85120708       0.76619554       0.00049738      -0.48480904
Pt      11.96000000      17.84000000      15.88000000       0.80761766      -0.56748909       0.00385805
Pt      13.90001516      12.00836224      15.92653399       0.48415700      -0.02182609      -0.23222668
Pt      15.88000000      10.00000000      15.88000000      -0.02316764       2.25512505       0.00914640
Pt      15.88000000      11.96000000      13.92000000      -0.02475259       0.57743490       0.46442813
Pt      15.83714452      12.04304119      17.81493370       0.35782114      -0.03008007      -0.09932466
Pt      13.92000000      15.88000000      11.96000000       0.38588354      -0.11365680       0.72854722
Pt      15.88000000      13.92000000      11.96000000      -0.05601334       0.41633686       0.79078490
Pt      15.88785887      15.87448425       9.99914745      -0.02012740       0.00017762       2.13384795
Pt      13.90470572      13.86715184      13.95732859      -0.05523397       0.04743779      -0.83010209
Pt      13.98980050      15.82475767      15.88335978       0.15521881       0.72392631      -0.03186502
Pt      15.89871041      13.93526967      15.88746359       0.05175463       0.72178149      -0.12771995
Pt      15.86725895      15.88825192      13.93516698       0.33911806      -0.10177404       0.61717951
Pt      13.92000000      13.92000000      17.84000000      -0.43016124      -0.07948741       0.74188697
Pt      13.92000000      15.88000000      19.80000000       0.32648510       0.01771973      -0.59980881
Pt      15.88000000      13.92000000      19.80000000      -0.03132900       0.48338476      -0.56968051
Pt      15.87279883      15.90562969      17.84911214       0.38238528      -0.15035032      -0.77807570
Pt      15.88000000      15.88000000      21.76000000      -0.00269462       0.00948846      -2.09532070
Pt      15.88000000      17.84000000      11.96000000       0.03168995      -0.43247235       0.63824868
Pt      13.92000000      17.84000000      13.92000000      -0.48626822       0.09133804      -0.23645058
Pt      13.90953829      19.79626436      15.86017648       0.09251477      -0.56053519       0.06831351
Pt      15.88000000      17.84000000      15.88000000       0.14603327      -1.13452208      -0.31050980
Pt      15.82831491      19.76982759      13.93880002       0.31322277      -0.40557310       0.20025970
Pt      13.92000000      17.84000000      17.84000000      -0.48231959       0.16856442       0.18559888
Pt      15.88000000      17.84000000      19.80000000      -0.01310218      -0.33764195      -0.54381728
Pt      15.86371457      19.75256253      17.77031230      -0.12514336      -0.00696576       0.09655754
Pt      15.87659811      21.75877881      15.87903417      -0.01828930      -2.06997943      -0.05094858
Pt      17.84247501      11.96226651      15.88809706      -0.39001933       0.50448805       0.00617598
Pt      17.84000000      15.88000000      11.96000000      -0.47144061      -0.00750878       0.77152795
Pt      17.82952511      13.90281840      13.96452205       0.24561906      -0.10587698      -0.79919368
Pt      17.84000000      15.88000000      15.88000000      -0.92515624       0.55136418       0.12684585
Pt      19.78329069      13.95045700      15.84487964      -0.38946068       0.10319072       0.27687937
Pt      19.80939473      15.86813878      13.92913984      -0.69756091       0.17019244       0.19735372
Pt      17.84000000      13.92000000      17.84000000       0.36538476      -0.11302845       0.33745959
Pt      17.84000000      15.88000000      19.80000000      -0.40251255       0.11602125      -0.79983974
Pt      19.80000000      15.88000000      17.84000000      -0.77510512       0.17411447      -0.50787628
Pt      17.87486250      17.88200834      13.87903774       0.04524207      -0.01407232      -0.06422111
Pt      17.84000000      19.80000000      15.88000000      -0.23022996      -0.48086834      -0.26238245
Pt      19.80047433      17.86148649      15.83834340      -0.72308517      -0.56680828       0.19210663
Pt      17.81578147      17.93211624      17.84286959       0.76324689      -0.55968171       0.29176021
Pt      21.77186710      15.85210696      15.85293243      -2.12566233       0.10732467       0.07505197
44
Lattice="31.759999999999998 0.0 0.0 0.0 31.759999999999998 0.0 0.0 0.0 31.759999999999998" Properties=species:S:1:pos:R:3:forces:R:3 energy=-218.50498962402344 free_energy=-218.50498962402344 stress="0.0012657446786761284 -6.3521642914565746e-06 -7.343610195675865e-05 -6.3521642914565746e-06 0.0012619486078619957 1.5179334695858415e-06 -7.343610195675865e-05 1.5179334695858415e-06 0.0012684286339208484" pbc="F F F"
Pt      10.06491826      15.84844283      15.93326849       1.75773227      -0.05692231      -0.14800292
Pt      12.01430058      13.88391299      15.88914311       0.04342054       0.64228123      -0.00912510
Pt      11.98899715      15.93377454      13.92800407       0.63344371      -0.36767283       0.39381909
Pt      11.96365972      15.87257164      17.84167829       0.80592024      -0.01761173      -0.22161195
Pt      11.96365822      17.79829048      15.91127896       0.81973219      -0.18486372      -0.09280515
Pt      13.90001516      12.00836224      15.92653399       0.44811931      -0.00065793      -0.22781280
Pt      15.88502148      10.00454638      15.87012698      -0.02718370       2.11308312       0.07327360
Pt      15.90539872      11.93460286      13.95543102      -0.14472724       0.68583310       0.27170718
Pt      15.83296129      12.04034407      17.81686308       0.49245596       0.14309990      -0.14641100
Pt      13.92000000      15.88000000      11.96000000       0.26482049      -0.16352408       0.75643277
Pt      15.91744510      13.93120595      11.98938518      -0.25436136       0.21522312       0.70487273
Pt      15.88000684      15.88220326      10.04580272      -0.01767725      -0.07614321       1.76193714
Pt      13.90470572      13.86715184      13.95732859       0.00932142       0.03067295      -0.81564248
Pt      13.98980050      15.82475767      15.88335978       0.28031051       0.67542374       0.02599736
Pt      15.89871041      13.93526967      15.88746359       0.08568118       0.79383528       0.00177926
Pt      15.86725895      15.88825192      13.93516698       0.30983281      -0.14544562       0.71115327
Pt      13.92000000      13.92000000      17.84000000      -0.29932034      -0.02644863       0.75897652
Pt      13.92000000      15.88000000      19.80000000       0.38848937      -0.00978712      -0.61662066
Pt      15.88000000      13.92000000      19.80000000      -0.01557021       0.44765967      -0.74601340
Pt      15.87719246      15.94558763      17.83806556       0.14521104      -0.73037875      -0.88218254
Pt      15.88000000      15.88000000      21.76000000       0.00767989       0.01969391      -2.21267748
Pt      15.86637806      17.80811377      11.94458438       0.06823377      -0.15186864       0.72128797
Pt      13.92000000      17.84000000      13.92000000      -0.39216366       0.24517813      -0.16367097
Pt      13.96830613      19.79764240      15.89257336      -0.51982522      -0.66152203      -0.17083029
Pt      15.88000000      17.84000000      15.88000000       0.02837649      -1.23144913      -0.31668150
Pt      15.82831491      19.76982759      13.93880002       0.24868062      -0.53429127      -0.13661066
Pt      13.92000000      17.84000000      17.84000000      -0.60154599       0.18115161       0.26048452
Pt      15.86954523      17.86439470      19.77506098      -0.02345986      -0.33736452      -0.32563150
Pt      15.83036273      19.78193282      17.78323026       0.20985156      -0.36437961       0.50137764
Pt      15.88839327      21.67441417      15.91579729       0.05139115      -1.32947850      -0.18068415
Pt      17.84247501      11.96226651      15.88809706      -0.25608173       0.47901112       0.06779080
Pt      17.84000000      15.88000000      11.96000000      -0.31221670      -0.02107053       0.69699168
Pt      17.82952511      13.90281840      13.96452205       0.37600106      -0.10814796      -0.71269000
Pt      17.84000000      15.88000000      15.88000000      -0.83346838       0.62023675      -0.26007292
Pt      19.79333123      13.95040052      15.84840606      -0.27222431       0.26157647      -0.04791206
Pt      19.80478185      15.85412537      13.84484510      -0.71922421       0.19340789       0.72528327
Pt      17.91544190      13.93390039      17.79350282      -0.34183866      -0.54809022       0.60059655
Pt      17.80598755      15.85130230      19.71266382      -0.24403419       0.28705665      -0.15291628
Pt      19.75818518      15.90878973      17.83737372      -0.28490913       0.19248503      -0.51207745
Pt      17.85269769      17.87136792      13.87486112       0.19853102      -0.13268842      -0.19671333
Pt      17.80531830      19.73574150      15.85423643       0.06867734      -0.06492468      -0.14696224
Pt      19.77376064      17.87448957      15.84510708      -0.55961496      -0.81415677       0.04090140
Pt      17.81681994      17.93296596      17.84404478       0.68015623      -0.28350091       0.37582862
Pt      21.77186710      15.85210696      15.85293243      -2.30262280       0.13548002      -0.00813219
44
Lattice="31.759999999999998 0.0 0.0 0.0 31.759999999999998 0.0 0.0 0.0 31.759999999999998" Properties=species:S:1:pos:R:3:forces:R:3 energy=-218.57350158691406 free_energy=-218.57350158691406 stress="0.0012232009321451187 2.934768417617306e-06 -7.494063902413473e-05 2.934768417617306e-06 0.0012325841234996915 9.360484227727284e-07 -7.494063902413473e-05 9.360484227727284e-07 0.0012442494044080377" pbc="F F F"
Pt      10.06491826      15.84844283      15.93326849       1.88193500      -0.04391431      -0.17024404
Pt      12.01430058      13.88391299      15.88914311       0.10494410       0.74145889      -0.00987210
Pt      12.03414907      15.89427358      13.88248612       0.39470479      -0.05766137       0.61473233
Pt      11.98364546      15.87479954      17.83979099       0.67365307      -0.06239283      -0.19196430
Pt      11.96365822      17.79829048      15.91127896       0.78845429      -0.24690607      -0.22596881
Pt      13.90001516      12.00836224      15.92653399       0.41435668       0.00596680      -0.22253574
Pt      15.83676589       9.98015950      15.91284323       0.04648732       2.35727668      -0.03457296
Pt      15.88740476      12.01948433      13.96618324      -0.12399484       0.07824874       0.17149785
Pt      15.83296129      12.04034407      17.81686308       0.38091934       0.04023580      -0.15698633
Pt      13.92000000      15.88000000      11.96000000       0.54873091      -0.12117793       0.70904732
Pt      15.91702611      13.93116733      11.98954474      -0.22423285       0.38077083       0.64976442
Pt      15.88000684      15.88220326      10.04580272      -0.01527690      -0.10141513       1.74917841
Pt      13.91283319      13.90655815      13.96454821      -0.11687309      -0.17438477      -0.76857007
Pt      13.98168611      15.86869100      15.87617164       0.29143974       0.33785322       0.16513442
Pt      15.89871041      13.93526967      15.88746359      -0.16794463       0.74558020       0.34760666
Pt      15.91564489      15.87236091      14.00614715      -0.31281954       0.19881195      -0.13283189
Pt      13.92000000      13.92000000      17.84000000      -0.28587499       0.05461785       0.64463729
Pt      13.92000000      15.88000000      19.80000000       0.41650334      -0.00326083      -0.61432958
Pt      15.88000000      13.92000000      19.80000000      -0.07519801       0.38471353      -0.71033251
Pt      15.87719246      15.94558763      17.83806556      -0.06865937      -0.71442389      -0.93597400
Pt      15.87875079      15.86874089      21.75863278      -0.01645018       0.04035088      -2.19194007
Pt      15.86637806      17.80811377      11.94458438       0.15460029      -0.25165960       0.82610911
Pt      13.93907829      17.85700317      13.87770732      -0.49094900       0.14506315       0.14021851
Pt      13.90239694      19.80730718      15.94083586      -0.01017113      -0.79213560      -0.42309186
Pt      15.88000000      17.84000000      15.88000000      -0.07794838      -0.79330128      -0.37772599
Pt      15.82831491      19.76982759      13.93880002       0.28509212      -0.62382412       0.16201842
Pt      13.92000000      17.84000000      17.84000000      -0.59758353       0.26386303       0.37827981
Pt      15.86954523      17.86439470      19.77506098      -0.04400950      -0.31237862      -0.30127624
Pt      15.84033020      19.78455534      17.79010115       0.05560854      -0.37391862       0.33161908
Pt      15.88839327      21.67441417      15.91579729      -0.00787936      -1.51249540      -0.20870838
Pt      17.84247501      11.96226651      15.88809706      -0.31901580       0.32403833       0.02397334
Pt      17.84000000      15.88000000      11.96000000      -0.34567934      -0.11647022       0.54781795
Pt      17.82952511      13.90281840      13.96452205       0.61362207      -0.19563755      -0.79524362
Pt      17.80600913      15.88025267      15.88213966      -0.16226083       0.48695469       0.17365947
Pt      19.76866417      13.93467661      15.84224424      -0.21958733       0.42183775       0.07253493
Pt      19.80478185      15.85412537      13.84484510      -0.58544540       0.04026565       0.74295551
Pt      17.86923891      13.90391852      17.79685446       0.04296186      -0.25069296       0.61567581
Pt      17.78768690      15.85181527      19.69488847      -0.06679082       0.27437991      -0.07655000
Pt      19.75818518      15.90878973      17.83737372      -0.48845971       0.04528576      -0.63456571
Pt      17.90232562      17.80865707      13.85372875      -0.12696427       0.54758841       0.02753422
Pt      17.81733362      19.72239755      15.89228018      -0.01090610      -0.05363223      -0.52974629
Pt      19.76929016      17.86567394      15.84976815      -0.48588970      -0.82971752       0.07183252
Pt      17.81681994      17.93296596      17.84404478       0.71647882      -0.36673033       0.54731178
Pt      21.77186710      15.85210696      15.85293243      -2.36362791       0.08296932      -0.00010922
44
Lattice="31.759999999999998 0.0 0.0 0.0 31.759999999999998 0.0 0.0 0.0 31.759999999999998" Properties=species:S:1:pos:R:3:forces:R:3 energy=-218.38548278808594 free_energy=-218.38548278808594 stress="0.0010626583825796843 -2.545566894696094e-05 -0.00011763367365347221 -2.545566894696094e-05 0.0010956833139061928 2.4381536150031025e-06 -0.00011763367365347221 2.4381536150031025e-06 0.0010588435688987374" pbc="F F F"
Pt      10.06491826      15.84844283      15.93326849       1.89460278      -0.06088319      -0.16628009
Pt      12.01430058      13.88391299      15.88914311       0.06469333       0.70563781      -0.00352041
Pt      12.04396711      15.86303403      13.88832520       0.32579792       0.18896767       0.61926562
Pt      11.98364546      15.87479954      17.83979099       0.15592773      -0.41742662      -0.20426627
Pt      11.97939285      17.80225675      16.00891781       0.39396292      -0.07084108      -0.94417453
Pt      13.92942625      12.03160853      15.89175860       0.13502553      -0.14349420      -0.06956293
Pt      15.83676589       9.98015950      15.91284323       0.07792979       2.24132633      -0.05273237
Pt      15.88740476      12.01948433      13.96618324       0.04763244       0.27355868       0.03600447
Pt      15.77781088      11.96185284      17.81600094       0.62732267       0.53910261      -0.13831832
Pt      13.92000000      15.88000000      11.96000000       0.44695121      -0.20809720       0.79210824
Pt      15.98875083      13.93534505      11.93226934      -0.57519639       0.20051929       0.93598688
Pt      15.85286230      15.94142740      10.09446437       0.01912569      -0.28343821       1.15806150
Pt      13.90823504      13.91946561      13.96600602       0.11791262      -0.21919326      -0.92821026
Pt      13.97518396      15.88785036      15.87178801       0.33355886       0.00265693      -0.10519400
Pt      15.89871041      13.93526967      15.88746359       0.05420800       0.80251664       0.45143238
Pt      15.91564489      15.87236091      14.00614715      -0.42721826       0.02190433      -0.12599957
Pt      13.92000000      13.92000000      17.84000000      -0.09924818      -0.00830512       0.58397353
Pt      13.84716242      15.89501701      19.74326766       0.62564564      -0.41670403      -0.06077541
Pt      15.88000000      13.92000000      19.80000000      -0.16967689       0.51464796      -0.97578210
Pt      15.87764953      15.99123491      17.81097058       0.05907805      -1.79856491      -0.84615922
Pt      15.91215456      15.93796021      21.70085172      -0.13021331      -0.14649078      -1.96201444
Pt      15.86637806      17.80811377      11.94458438      -0.05882278       0.03990558       0.64987016
Pt      13.94861059      17.86209701      13.84783907      -0.98872775      -0.18698952       0.39747494
Pt      13.90239694      19.80730718      15.94083586      -0.16087969      -0.84585941      -0.25443974
Pt      15.88000000      17.84000000      15.88000000      -0.29959989      -0.58146143      -0.54815978
Pt      15.74512784      19.75057317      13.96024468       0.72195363      -0.11385928      -0.00891958
Pt      13.88807229      17.77145451      17.83180817      -0.40142941       1.29856694       0.39325273
Pt      15.79895853      17.80164125      19.72266937       0.22502771       0.31246647       0.21247703
Pt      15.84033020      19.78455534      17.79010115      -0.19369286      -0.35134381       0.34424320
Pt      15.88839327      21.67441417      15.91579729      -0.03714265      -1.49581265      -0.18599215
Pt      17.84247501      11.96226651      15.88809706      -0.39583886       0.47458088      -0.02303757
Pt      17.81844470      15.86998689      11.96435894       0.01884637       0.08142333       0.52356988
Pt      17.85345827      13.94346843      13.93775696       0.39375919      -0.59916860      -0.51206481
Pt      17.80534879      15.88746080      15.88909665      -0.07309555       0.47514924      -0.08433872
Pt      19.77245258      13.93787536      15.84106710      -0.28985068       0.40904754       0.08483090
Pt      19.80478185      15.85412537      13.84484510      -0.67330581       0.29473031       0.79216599
Pt      17.86923891      13.90391852      17.79685446      -0.16959375      -0.31103367       0.58800542
Pt      17.78768690      15.85181527      19.69488847       0.03467429       0.16186741      -0.24984674
Pt      19.75818518      15.90878973      17.83737372      -0.53782827       0.08834149      -0.64230871
Pt      17.80098963      17.85444475      13.80948733       0.69517410       0.28151834       0.49537021
Pt      17.81733362      19.72239755      15.89228018      -0.01679610       0.05249074      -0.65076327
Pt      19.76929016      17.86567394      15.84976815      -0.65723920      -0.87996304      -0.09620317
Pt      17.77195560      17.94198776      17.81892970       1.25594187      -0.44376302       0.79906178
Pt      21.77186710      15.85210696      15.85293243      -2.36935639       0.12176630      -0.01809073
44
Lattice="31.759999999999998 0.0 0.0 0.0 31.759999999999998 0.0 0.0 0.0 31.759999999999998" Properties=species:S:1:pos:R:3:forces:R:3 energy=-218.53880310058594 free_energy=-218.53880310058594 stress="0.0009313272312283516 -1.4887889847159386e-05 -0.00013323433813638985 -1.4887889847159386e-05 0.0009117862791754305 3.7306048739083053e-07 -0.00013323433813638985 3.7306048739083053e-07 0.0009279943187721074" pbc="F F F"
Pt      10.06425363      15.84899222      15.94480673       1.95526028      -0.06314375      -0.21024498
Pt      12.02981010      13.87695714      15.94873306       0.05450144       0.84703398      -0.35512137
Pt      12.06559607      15.81932076      13.84501540       0.17044047       0.38172939       0.96161973
Pt      11.98364546      15.87479954      17.83979099       0.23083113      -0.44547808      -0.14402138
Pt      11.97939285      17.80225675      16.00891781       0.30103847      -0.30811435      -0.95801079
Pt      13.92942625      12.03160853      15.89175860       0.06704327      -0.22009730      -0.11216851
Pt      15.83676589       9.98015950      15.91284323       0.03059306       2.30025959      -0.04656713
Pt      15.88740476      12.01948433      13.96618324      -0.06434765       0.23191784      -0.10042521
Pt      15.76529644      11.99937276      17.79998306       0.79613030       0.10407774       0.10745311
Pt      13.92000000      15.88000000      11.96000000       0.54399472      -0.21228912       0.64839184
Pt      15.98875083      13.93534505      11.93226934      -0.59124863       0.16979095       0.90890807
Pt      15.85286230      15.94142740      10.09446437      -0.01450685      -0.28718764       1.11129212
Pt      13.91368006      13.91947403      13.96523226       0.08706345      -0.30121601      -0.78647792
Pt      14.01112670      15.90145907      15.87638224      -0.09624574      -0.24590817      -0.20191164
Pt      15.89871041      13.93526967      15.88746359      -0.04882174       1.10985541       0.45606112
Pt      15.91564489      15.87236091      14.00614715      -0.33105472       0.02590605      -0.17785016
Pt      13.93320333      13.91548769      17.85467036      -0.31053099       0.15412933       0.56085342
Pt      13.84716242      15.89501701      19.74326766       0.60885572      -0.37556463      -0.05507316
Pt      15.88614947      13.91415718      19.78837492      -0.30831724       0.38566837      -0.76803041
Pt      15.87764953      15.99123491      17.81097058       0.09588308      -1.80672574      -0.88580680
Pt      15.91215456      15.93796021      21.70085172      -0.16445109      -0.17530723      -1.87456596
Pt      15.86637806      17.80811377      11.94458438      -0.10146706       0.07820283       0.62472242
Pt      13.94861059      17.86209701      13.84783907      -1.02569234      -0.23401210       0.35133573
Pt      13.89978568      19.72435611      15.99261559      -0.34594488      -0.31923887      -0.66599393
Pt      15.88000000      17.84000000      15.88000000      -0.11916718      -0.61187184      -0.61353886
Pt      15.74512784      19.75057317      13.96024468       0.68170595      -0.16675715      -0.04285795
Pt      13.88807229      17.77145451      17.83180817      -0.49015844       1.07751584       0.77912402
Pt      15.82733372      17.78560283      19.73357380       0.02776310       0.38074261       0.23447646
Pt      15.81219500      19.74241860      17.81526296       0.09035007      -0.13913864       0.37249449
Pt      15.87779213      21.61925066      15.91680116       0.00564776      -1.48064053      -0.12385632
Pt      17.80194476      12.05080245      15.88051988       0.00790617      -0.12333635       0.09233201
Pt      17.80289303      15.87809696      11.96619957       0.15215239       0.03949619       0.55626279
Pt      17.85345827      13.94346843      13.93775696       0.42642477      -0.46316814      -0.71058691
Pt      17.80534879      15.88746080      15.88909665      -0.12011127       0.31029537       0.04692627
Pt      19.77245258      13.93787536      15.84106710      -0.34376252       0.51725262       0.19019492
Pt      19.80478185      15.85412537      13.84484510      -0.69248426       0.28228319       0.73068106
Pt      17.87274936      13.87802016      17.86226283      -0.01521852      -0.18387789       0.09688202
Pt      17.75652455      15.81769663      19.67863721       0.40050006       0.41428560       0.00963032
Pt      19.75818518      15.90878973      17.83737372      -0.61367768      -0.07399240      -0.49623805
Pt      17.80098963      17.85444475      13.80948733       0.72211605       0.18757135       0.39483321
Pt      17.83395005      19.66331731      15.84902506       0.00233439       0.32134467      -0.42869562