4
Lattice="3.61 0.0 0.0 0.0 3.61 0.0 0.0 0.0 3.61" Properties=species:S:1:pos:R:3:forces:R:3 energy=-14.968303680419922 free_energy=-14.968303680419922 stress="-0.0024318085052073 6.026591108820867e-06 2.2982901271006995e-07 6.026591108820867e-06 -0.0024247406981885433 -1.2418389587764977e-06 2.2982901271006995e-07 -1.2418389587764977e-06 -0.0024351885076612234" pbc="T T T"
Cu       0.00000000       0.00000000       0.00000000      -0.00000004      -0.00000004       0.00000001
Cu       0.00000000       1.80500000       1.80500000      -0.00000007       0.00000001       0.00000003
Cu       1.80500000       0.00000000       1.80500000       0.00000005       0.00000005      -0.00000000
Cu       1.80500000       1.80500000       0.00000000       0.00000005      -0.00000002      -0.00000004
4
Lattice="3.61 0.0 0.0 0.0 3.61 0.0 0.0 0.0 3.61" Properties=species:S:1:pos:R:3:forces:R:3 energy=-14.947200775146484 free_energy=-14.947200775146484 stress="-0.0040838695131242275 -0.0009607042884454131 0.00013144986587576568 -0.0009607042884454131 -0.004078302066773176 0.00013573665637522936 0.00013144986587576568 0.00013573665637522936 -0.004077151883393526" pbc="T T T"
Cu       0.00000000       0.00000000       0.00000000      -0.01143622       0.19728360      -0.02783290
Cu       0.05421627       1.86138020       1.79720003      -0.37271342      -0.38746315       0.05385242
Cu       1.80500000       0.00000000       1.80500000       0.19451101       0.20193532       0.00175823
Cu       1.80500000       1.80500000       0.00000000       0.18963861      -0.01175572      -0.02777776
4
Lattice="3.61 0.0 0.0 0.0 3.61 0.0 0.0 0.0 3.61" Properties=species:S:1:pos:R:3:forces:R:3 energy=-14.926615715026855 free_energy=-14.926615715026855 stress="-0.005537455435842276 -0.001693897764198482 -0.00019093712035100907 -0.001693897764198482 -0.005827718880027533 0.0011986588360741735 -0.00019093712035100907 0.0011986588360741735 -0.005852400325238705" pbc="T T T"
Cu       0.02153658      -0.00401051       0.02787433      -0.16197598       0.28779817      -0.22011299
Cu       0.06948419       1.87853051       1.79788303      -0.48593837      -0.52657950       0.15155938
Cu       1.80500000       0.00000000       1.80500000       0.32962829       0.26832688       0.09962980
Cu       1.80500000       1.80500000       0.00000000       0.31828606      -0.02954541      -0.03107619
4
Lattice="3.5696073732008773 0.0 0.0 0.0 3.5696073732008773 0.0 0.0 0.0 3.5696073732008773" Properties=species:S:1:pos:R:3:forces:R:3 energy=-14.89715576171875 free_energy=-14.89715576171875 stress="-0.037257760763168335 1.1384818208171055e-05 -0.00018462989828549325 1.1384818208171055e-05 -0.03738897293806076 0.0018778354860842228 -0.00018462989828549325 0.0018778354860842228 -0.037559255957603455" pbc="T T T"
Cu       0.02129560      -0.00396564       0.02756244      -0.16517358       0.42392719      -0.26865858
Cu      -0.00532287       1.87952488       1.77473053       0.03557855      -0.77074635       0.20112967
Cu       1.78480369       0.00000000       1.78480369       0.06431618       0.38995394       0.11626775
Cu       1.78480369       1.78480369       0.00000000       0.06527884      -0.04313452      -0.04873888
4
Lattice="3.5696073732008773 0.0 0.0 0.0 3.5696073732008773 0.0 0.0 0.0 3.5696073732008773" Properties=species:S:1:pos:R:3:forces:R:3 energy=-14.862983703613281 free_energy=-14.862983703613281 stress="-0.04105100408196449 0.0008838397334329784 -0.0004938625497743487 0.0008838397334329784 -0.03965846076607704 0.002327436814084649 -0.0004938625497743487 0.002327436814084649 -0.03973209485411644" pbc="T T T"
Cu       0.02129560      -0.00396564       0.02756244      -0.10770541       0.42690381      -0.57468307
Cu      -0.00532287       1.87952488       1.77473053       0.09924927      -0.81000340       0.22573468
Cu       1.79930082      -0.00931291       1.71059101      -0.05232413       0.46497220       0.70154512
Cu       1.78480369       1.78480369       0.00000000       0.06078022      -0.08187268      -0.35259652
4
Lattice="3.5696073732008773 0.0 0.0 0.0 3.5696073732008773 0.0 0.0 0.0 3.5696073732008773" Properties=species:S:1:pos:R:3:forces:R:3 energy=-14.818607330322266 free_energy=-14.818607330322266 stress="-0.04450075700879097 -0.002882191678509116 0.00035746447974815965 -0.002882191678509116 -0.043450359255075455 0.0037562011275440454 0.00035746447974815965 0.0037562011275440454 -0.04328065365552902" pbc="T T T"
Cu       0.02129560      -0.00396564       0.02756244      -0.18562053       0.46955311      -0.75428259
Cu       0.06909678       1.88751631       1.74537376      -0.56006157      -0.89572293       0.47624409
Cu       1.78771133      -0.00938899       1.69937656       0.37679434       0.51325428       0.80116296
Cu       1.78480369       1.78480369       0.00000000       0.36888766      -0.08708461      -0.52312475
4
Lattice="3.670510307056282 0.0 0.0 0.0 3.670510307056282 0.0 0.0 0.0 3.670510307056282" Properties=species:S:1:pos:R:3:forces:R:3 energy=-14.883203506469727 free_energy=-14.883203506469727 stress="0.03210856020450592 -0.00018570128304418176 2.343163578188978e-05 -0.00018570128304418176 0.03194819390773773 0.002478203270584345 2.343163578188978e-05 0.002478203270584345 0.031662989407777786" pbc="T T T"
Cu       0.03517001       0.00511280       0.05026258      -0.14031339       0.18870895      -0.50888598
Cu       0.04137172       1.91031913       1.80197829      -0.17207026      -0.33426672       0.33604297
Cu       1.85627263       0.02672293       1.78872484       0.10145476       0.06176224       0.39991459
Cu       1.83525515       1.83525515       0.00000000       0.21092889       0.08379552      -0.22707149
4
Lattice="3.670510307056282 0.0 0.0 0.0 3.670510307056282 0.0 0.0 0.0 3.670510307056282" Properties=species:S:1:pos:R:3:forces:R:3 energy=-14.8854341506958 free_energy=-14.8854341506958 stress="0.03257102146744728 -0.0012026719050481915 -0.0009815143421292305 -0.0012026719050481915 0.032329950481653214 0.0014282906195148826 -0.0009815143421292305 0.0014282906195148826 0.031655266880989075" pbc="T T T"
Cu       0.03517001       0.00511280       0.05026258      -0.21126850       0.25790542      -0.24849465
Cu       0.05617285       1.93748152       1.85194219      -0.32733795      -0.47927397       0.05095229
Cu       1.83501210       0.02750775       1.83125850       0.26463330       0.13939328       0.15758699
Cu       1.83134486       1.83540286      -0.00141604       0.27397317       0.08197518       0.03995536
4
Lattice="3.670510307056282 0.0 0.0 0.0 3.670510307056282 0.0 0.0 0.0 3.670510307056282" Properties=species:S:1:pos:R:3:forces:R:3 energy=-14.880844116210938 free_energy=-14.880844116210938 stress="0.032296426594257355 -0.00100454140920192 -0.0011598857818171382 -0.00100454140920192 0.03202620521187782 0.0013943332014605403 -0.0011598857818171382 0.0013943332014605403 0.031206127256155014" pbc="T T T"
Cu       0.03517001       0.00511280       0.05026258      -0.27976400       0.20860867      -0.26023281
Cu       0.05159030       1.92886065       1.84719165      -0.36996871      -0.42907900       0.04743874
Cu       1.83501210       0.02750775       1.83125850       0.25193349       0.08933314       0.13054180
Cu       1.80655067       1.82657259      -0.01128045       0.39779928       0.13113713       0.08225225
4
Lattice="3.5945632098979727 0.0 0.0 0.0 3.5945632098979727 0.0 0.0 0.0 3.5945632098979727" Properties=species:S:1:pos:R:3:forces:R:3 energy=-14.913661003112793 free_energy=-14.913661003112793 stress="-0.016877783462405205 -0.0016751878429204226 -0.0008668032241985202 -0.0016751878429204226 -0.01769973523914814 0.0021801639813929796 -0.0008668032241985202 0.0021801639813929796 -0.018347609788179398" pbc="T T T"
Cu       0.03444230       0.00500701       0.04922259      -0.25983018       0.19396567      -0.33704045
Cu       0.05052283       1.88895030       1.80897112      -0.37061328      -0.54539019       0.14161168
Cu       1.79704358       0.02693859       1.79336765       0.32568395       0.04233963       0.24542065
Cu       1.79859228       1.76824256       0.00921056       0.30475953       0.30908483      -0.04999179
4
Lattice="3.6013483625742273 0.0 0.0 0.0 3.6013483625742273 0.0 0.0 0.0 3.6013483625742273" Properties=species:S:1:pos:R:3:forces:R:3 energy=-14.898416519165039 free_energy=-14.898416519165039 stress="-0.013491839170455933 -0.0022245366126298904 -0.001858517061918974 -0.0022245366126298904 -0.01359473541378975 0.002138579497113824 -0.001858517061918974 0.002138579497113824 -0.014104196801781654" pbc="T T T"
Cu       0.04745345       0.01760288       0.06527318      -0.22727484      -0.01753245      -0.43770409
Cu       0.05061820       1.89251591       1.81238576      -0.24547830      -0.48636729       0.06780966
Cu       1.80043570       0.02698944       1.79675284       0.36110544      -0.08568838       0.16360569
Cu       1.83557195       1.73781034      -0.02716242       0.11164765       0.58958817       0.20628873
4
Lattice="3.6013483625742273 0.0 0.0 0.0 3.6013483625742273 0.0 0.0 0.0 3.6013483625742273" Properties=species:S:1:pos:R:3:forces:R:3 energy=-14.916311264038086 free_energy=-14.916311264038086 stress="-0.013251802884042263 0.0035614960361272097 8.388283458771184e-05 0.0035614960361272097 -0.013827435672283173 -0.0002974008384626359 8.388283458771184e-05 -0.0002974008384626359 -0.010460615158081055" pbc="T T T"
Cu      -0.02061609       0.06865867       0.02834667       0.45961910      -0.45456156      -0.19978906
Cu       0.04264622       1.83277169       1.80214192       0.00786202       0.12458900      -0.00241345
Cu       1.80043570       0.02698944       1.79675284       0.06307857      -0.14531337       0.03420871
Cu       1.88442985       1.78476120      -0.02630451      -0.53055978       0.47528601       0.16799381
4
Lattice="3.6013483625742273 0.0 0.0 0.0 3.6013483625742273 0.0 0.0 0.0 3.6013483625742273" Properties=species:S:1:pos:R:3:forces:R:3 energy=-14.83810806274414 free_energy=-14.83810806274414 stress="-0.018437480553984642 0.006503317970782518 0.0002322080690646544 0.006503317970782518 -0.022458046674728394 -0.0017153570661321282 0.0002322080690646544 -0.0017153570661321282 -0.014362849295139313" pbc="T T T"
Cu      -0.08534866       0.08211437       0.07415719       0.97383916      -0.59041202      -0.62882781
Cu       0.05058890       1.82871264       1.77492148      -0.00848096       0.21002650       0.35375103
Cu       1.80043570       0.02698944       1.79675284      -0.15607175      -0.13587907       0.21408442
Cu       1.89107389       1.79282746      -0.02801763      -0.80928648       0.51626462       0.06099243
4
Lattice="3.6013483625742273 0.0 0.0 0.0 3.6013483625742273 0.0 0.0 0.0 3.6013483625742273" Properties=species:S:1:pos:R:3:forces:R:3 energy=-14.88046932220459 free_energy=-14.88046932220459 stress="-0.013729481026530266 -0.00023629350471310318 -0.000829068070743233 -0.00023629350471310318 -0.014809781685471535 -0.0010434777941554785 -0.000829068070743233 -0.0010434777941554785 -0.01624242775142193" pbc="T T T"
Cu      -0.08534866       0.08211437       0.07415719       0.51817071      -0.31623590      -0.63196385
Cu       0.05058890       1.82871264       1.77492148      -0.42291254       0.19798423       0.13741750
Cu       1.80043570       0.02698944       1.79675284      -0.13254195       0.07111746       0.00608131
Cu       1.77895060       1.84889904      -0.08495473       0.03728385       0.04713416       0.48846501
4
Lattice="3.6013483625742273 0.0 0.0 0.0 3.6013483625742273 0.0 0.0 0.0 3.6013483625742273" Properties=species:S:1:pos:R:3:forces:R:3 energy=-14.883950233459473 free_energy=-14.883950233459473 stress="-0.012696485035121441 0.0005458657979033887 0.0011217632563784719 0.0005458657979033887 -0.016429582610726357 0.0008766219252720475 0.0011217632563784719 0.0008766219252720475 -0.015175974927842617" pbc="T T T"
Cu      -0.08534866       0.08211437       0.07415719       0.54568172      -0.16608484      -0.71848547
Cu       0.00082836       1.86800133       1.75014226      -0.04568137      -0.08314374       0.28172719
Cu       1.80043570       0.02698944       1.79675284      -0.31439778       0.21663433      -0.02637233
Cu       1.78418770       1.84959905      -0.09522422      -0.18560258       0.03259424       0.46313077
4
Lattice="3.6013483625742273 0.0 0.0 0.0 3.6013483625742273 0.0 0.0 0.0 3.6013483625742273" Properties=species:S:1:pos:R:3:forces:R:3 energy=-14.865418434143066 free_energy=-14.865418434143066 stress="-0.013316277414560318 0.0005535887321457267 0.0012664742534980178 0.0005535887321457267 -0.01856420747935772 -0.0016216888325288892 0.0012664742534980178 -0.0016216888325288892 -0.01639183983206749" pbc="T T T"
Cu      -0.05401827       0.10538397       0.10908717       0.32897490      -0.34727308      -0.96436357
Cu       0.00082836       1.86800133       1.75014226      -0.05085611       0.10554560       0.42087311
Cu       1.80052587       0.05042227       1.80012563      -0.20436442       0.04157984       0.07269479
Cu       1.78418770       1.84959905      -0.09522422      -0.07375450       0.20014763       0.47079557
4
Lattice="3.6013483625742273 0.0 0.0 0.0 3.6013483625742273 0.0 0.0 0.0 3.6013483625742273" Properties=species:S:1:pos:R:3:forces:R:3 energy=-14.84844970703125 free_energy=-14.84844970703125 stress="-0.01355298887938261 -0.0012052151141688228 0.0010861646151170135 -0.0012052151141688228 -0.018768122419714928 -7.528153946623206e-05 0.0010861646151170135 -7.528153946623206e-05 -0.019328542053699493" pbc="T T T"
Cu      -0.05401827       0.10538397       0.10908717       0.08912848      -0.17394769      -0.96714413
Cu       0.00082836       1.86800133       1.75014226      -0.30640960       0.09478340       0.36465949
Cu       1.80052587       0.05042227       1.80012563      -0.18854910       0.23539913       0.02199347
Cu       1.71583945       1.89910929      -0.10786601       0.40583023      -0.15623483       0.58049107
4
Lattice="3.594480100490656 0.0 0.0 0.0 3.594480100490656 0.0 0.0 0.0 3.594480100490656" Properties=species:S:1:pos:R:3:forces:R:3 energy=-14.842140197753906 free_energy=-14.842140197753906 stress="-0.023462843149900436 -0.0016105914255604148 -0.002533752704039216 -0.0016105914255604148 -0.018936075270175934 1.7278804079978727e-05 -0.002533752704039216 1.7278804079978727e-05 -0.0253362488001585" pbc="T T T"
Cu      -0.05391525       0.10518299       0.10887913       0.09311187      -0.25277930      -0.68572813
Cu       0.00747123       1.84018174       1.82619850      -0.40371749       0.25225741      -0.23282577
Cu       1.79709203       0.05032610       1.79669255      -0.16723880       0.15039051       0.00543249
Cu       1.71256711       1.89548743      -0.10766029       0.47784445      -0.14986846       0.91312134
4
Lattice="3.6283121357840136 0.0 0.0 0.0 3.6283121357840136 0.0 0.0 0.0 3.6283121357840136" Properties=species:S:1:pos:R:3:forces:R:3 energy=-14.855110168457031 free_energy=-14.855110168457031 stress="0.001499791513197124 -0.0014054548228159547 -0.002305170986801386 -0.0014054548228159547 0.005559143610298634 1.5377858289866708e-05 -0.002305170986801386 1.5377858289866708e-05 -0.00019630847964435816" pbc="T T T"
Cu      -0.05442271       0.10617299       0.10990392       0.08673733      -0.22745925      -0.62055314
Cu       0.00754155       1.85750193       1.84338708      -0.36341852       0.22693947      -0.20957287
Cu       1.81400665       0.05079978       1.81360341      -0.15336965       0.13684303       0.00644688
Cu       1.72868617       1.91332817      -0.10867361       0.43005070      -0.13632327       0.82367921
4
Lattice="3.6283121357840136 0.0 0.0 0.0 3.6283121357840136 0.0 0.0 0.0 3.6283121357840136" Properties=species:S:1:pos:R:3:forces:R:3 energy=-14.831151008605957 free_energy=-14.831151008605957 stress="-0.0023102920968085527 -0.0031472111586481333 -0.001390554360114038 -0.0031472111586481333 0.0064658732153475285 0.0017615215620025992 -0.001390554360114038 0.0017615215620025992 -0.002676616655662656" pbc="T T T"
Cu      -0.05442271       0.10617299       0.10990392       0.03986698      -0.25746644      -0.71160758
Cu       0.01215862       1.86367415       1.85713483      -0.45332491      -0.07169175      -0.16979510
Cu       1.82028512      -0.02877028       1.77237467      -0.18920583       0.57629955       0.40541032
Cu       1.70376311       1.89149526      -0.06765451       0.60266376      -0.24714139       0.47599244
4
Lattice="3.678389248589658 0.0 0.0 0.0 3.678389248589658 0.0 0.0 0.0 3.678389248589658" Properties=species:S:1:pos:R:3:forces:R:3 energy=-14.763679504394531 free_energy=-14.763679504394531 stress="0.030195046216249466 -0.0025679077953100204 -0.002981347031891346 -0.0025679077953100204 0.0292462557554245 0.005974234081804752 -0.002981347031891346 0.005974234081804752 0.02672838605940342" pbc="T T T"
Cu      -0.01333241       0.08977105       0.14365027      -0.22580585      -0.14044577      -0.52090466
Cu       0.01232643       1.88939614       1.88276657      -0.41534498      -0.22156608      -0.06764442
Cu       1.83673658      -0.07138894       1.88709795       0.02869252       0.77519906      -0.11443564
Cu       1.72727805       1.91760124      -0.06858826       0.61245847      -0.41318735       0.70298451
4
Lattice="3.678389248589658 0.0 0.0 0.0 3.678389248589658 0.0 0.0 0.0 3.678389248589658" Properties=species:S:1:pos:R:3:forces:R:3 energy=-14.714064598083496 free_energy=-14.714064598083496 stress="0.0236678309738636 -0.0007613886264152825 -0.0022216318175196648 -0.0007613886264152825 0.025813400745391846 0.01236919965595007 -0.0022216318175196648 0.01236919965595007 0.024979127570986748" pbc="T T T"
Cu      -0.01333241       0.08977105       0.14365027      -0.04974753       0.07431047      -0.26734993
Cu      -0.00141026       1.95289311       1.94200647      -0.15791668      -0.51124460      -0.50502026
Cu       1.82897654      -0.04845480       1.92411450       0.02607298       0.95266092      -0.48786390
Cu       1.80271995       1.93150163      -0.11508544       0.18159124      -0.51572692       1.26023412
4
Lattice="3.678389248589658 0.0 0.0 0.0 3.678389248589658 0.0 0.0 0.0 3.678389248589658" Properties=species:S:1:pos:R:3:forces:R:3 energy=-14.587570190429688 free_energy=-14.587570190429688 stress="0.013317928649485111 -0.00019272376084700227 -0.003604648634791374 -0.00019272376084700227 0.01580769009888172 0.015326347202062607 -0.003604648634791374 0.015326347202062607 0.015791624784469604" pbc="T T T"
Cu       0.00308462       0.04080075       0.11196679      -0.14353418       0.28931576      -0.10011671
Cu      -0.00141026       1.95289311       1.94200647      -0.21413484      -0.63605356      -0.85863900
Cu       1.82897654      -0.04845480       1.92411450       0.07502785       1.02124953      -0.84962571
Cu       1.79810708       1.91748821      -0.19938018       0.28264111      -0.67451179       1.80838156
4
Lattice="3.6631777793083207 0.0 0.0 0.0 3.6631777793083207 0.0 0.0 0.0 3.6631777793083207" Properties=species:S:1:pos:R:3:forces:R:3 energy=-14.589648246765137 free_energy=-14.589648246765137 stress="0.002590225310996175 -0.0003774621582124382 -0.00311373476870358 -0.0003774621582124382 0.004643844906240702 0.014749511145055294 -0.00311373476870358 0.014749511145055294 0.006493869703263044" pbc="T T T"
Cu       0.02084011       0.06461311       0.04431280      -0.25326580       0.18376267       0.29238093
Cu      -0.00140443       1.94481719       1.93397557      -0.22591403      -0.60471475      -1.10231459
Cu       1.82141306      -0.04825442       1.91615759       0.13067842       1.06902933      -1.08666837
Cu       1.79067125       1.90955870      -0.19855567       0.34850144      -0.64807719       1.89660192
4
Lattice="3.6631777793083207 0.0 0.0 0.0 3.6631777793083207 0.0 0.0 0.0 3.6631777793083207" Properties=species:S:1:pos:R:3:forces:R:3 energy=-14.684042930603027 free_energy=-14.684042930603027 stress="0.006848970428109169 0.0014608735218644142 -0.0017518328968435526 0.0014608735218644142 0.016829615458846092 0.0115662245079875 -0.0017518328968435526 0.0115662245079875 0.012424574233591557" pbc="T T T"
Cu       0.02084011       0.06461311       0.04431280      -0.13757323       0.24320409       0.03419156
Cu      -0.00140443       1.94481719       1.93397557      -0.03559290      -0.73185003      -0.90522206
Cu       1.84818751      -0.08810295       1.82503191      -0.04434144       1.21699297      -0.39623669
Cu       1.80651017       1.93001265      -0.14749362       0.21750756      -0.72834718       1.26726747
4
Lattice="3.6631777793083207 0.0 0.0 0.0 3.6631777793083207 0.0 0.0 0.0 3.6631777793083207" Properties=species:S:1:pos:R:3:forces:R:3 energy=-14.681238174438477 free_energy=-14.681238174438477 stress="0.008138846606016159 0.0019155893241986632 0.0003410718054510653 0.0019155893241986632 0.015109680593013763 0.012575549073517323 0.0003410718054510653 0.012575549073517323 0.011418424546718597" pbc="T T T"
Cu      -0.01978449       0.01298127       0.07054838       0.09175503       0.58978140      -0.28341776
Cu      -0.01037397       1.96483628       1.87938779       0.05273034      -1.00655186      -0.49357426
Cu       1.84818751      -0.08810295       1.82503191      -0.20364155       1.28769517      -0.30844384
Cu       1.80651017       1.93001265      -0.14749362       0.05915621      -0.87092423       1.08543587
4
Lattice="3.6631777793083207 0.0 0.0 0.0 3.6631777793083207 0.0 0.0 0.0 3.6631777793083207" Properties=species:S:1:pos:R:3:forces:R:3 energy=-14.733327865600586 free_energy=-14.733327865600586 stress="0.014733197167515755 9.908439824357629e-05 -0.0004838418972212821 9.908439824357629e-05 0.018390337005257607 0.011805911548435688 -0.0004838418972212821 0.011805911548435688 0.014604825526475906" pbc="T T T"
Cu      -0.02389083       0.02413845       0.07254020       0.11458373       0.39452308      -0.34673971
Cu       0.00451797       1.91887631       1.86008045      -0.06015329      -0.70273495      -0.38527119
Cu       1.84818751      -0.08810295       1.82503191      -0.15233187       1.13991201      -0.29695025
Cu       1.80651017       1.93001265      -0.14749362       0.09790146      -0.83170033       1.02896118
4
Lattice="3.6631777793083207 0.0 0.0 0.0 3.6631777793083207 0.0 0.0 0.0 3.6631777793083207" Properties=species:S:1:pos:R:3:forces:R:3 energy=-14.704985618591309 free_energy=-14.704985618591309 stress="0.014263455756008625 0.0006449928623624146 0.00019144710677210242 0.0006449928623624146 0.014752862975001335 0.014672156423330307 0.00019144710677210242 0.014672156423330307 0.012343079783022404" pbc="T T T"
Cu      -0.02389083       0.02413845       0.07254020       0.08183499       0.38979512      -0.34919250
Cu      -0.01076254       1.91644743       1.84602138       0.01350968      -0.77307737      -0.30295753
Cu       1.83736523      -0.11430707       1.83780661      -0.13864855       1.32945299      -0.41899753
Cu       1.80651017       1.93001265      -0.14749362       0.04330391      -0.94617069       1.07114768
4
Lattice="3.6631777793083207 0.0 0.0 0.0 3.6631777793083207 0.0 0.0 0.0 3.6631777793083207" Properties=species:S:1:pos:R:3:forces:R:3 energy=-14.677213668823242 free_energy=-14.677213668823242 stress="0.012275696732103825 0.00019519012130331248 0.0007438247557729483 0.00019519012130331248 0.012930409051477909 0.016609862446784973 0.0007438247557729483 0.016609862446784973 0.010324401780962944" pbc="T T T"
Cu      -0.03627940       0.01507520       0.09192948       0.17167589       0.43103820      -0.46645141
Cu      -0.01076254       1.91644743       1.84602138       0.03505201      -0.80394673      -0.29381156
Cu       1.83736523      -0.11430707       1.83780661      -0.17935579       1.34067726      -0.42284167
Cu       1.81274628       1.92589402      -0.16397064      -0.02737216      -0.96776867       1.18310452
4
Lattice="3.605246320908302 0.0 0.0 0.0 3.605246320908302 0.0 0.0 0.0 3.605246320908302" Properties=species:S:1:pos:R:3:forces:R:3 energy=-14.730069160461426 free_energy=-14.730069160461426 stress="-0.025603292509913445 0.0007974316249601543 -0.0005754387238994241 0.0007974316249601543 -0.02200612612068653 0.015312588773667812 -0.0005754387238994241 0.015312588773667812 -0.023579802364110947" pbc="T T T"
Cu      -0.03570566       0.01483680       0.09047566       0.08760037       0.38435072      -0.55307740
Cu      -0.01059234       1.88613970       1.81682740      -0.09995827      -0.97221798      -0.28494841
Cu       1.80830815      -0.11249936       1.80874255      -0.20656918       1.36418343      -0.32546437
Cu       1.74914273       1.84788859      -0.14001682       0.21892712      -0.77631646       1.16349053
4
Lattice="3.605246320908302 0.0 0.0 0.0 3.605246320908302 0.0 0.0 0.0 3.605246320908302" Properties=species:S:1:pos:R:3:forces:R:3 energy=-14.723738670349121 free_energy=-14.723738670349121 stress="-0.02345183677971363 -0.0026739591266959906 -0.0035372567363083363 -0.0026739591266959906 -0.025168688967823982 0.016611050814390182 -0.0035372567363083363 0.016611050814390182 -0.02395002543926239" pbc="T T T"
Cu      -0.02588675       0.01638078       0.10685620      -0.18817523       0.38737029      -0.55243021
Cu      -0.01059234       1.88613970       1.81682740      -0.35608578      -0.94770658      -0.20289883
Cu       1.75595518      -0.10505040       1.84117889       0.24304023       1.35850310      -0.47743079
Cu       1.74449635       1.85132937      -0.13125443       0.30122074      -0.79816669       1.23275936
4
Lattice="3.605246320908302 0.0 0.0 0.0 3.605246320908302 0.0 0.0 0.0 3.605246320908302" Properties=species:S:1:pos:R:3:forces:R:3 energy=-14.887157440185547 free_energy=-14.887157440185547 stress="-0.01174935232847929 -0.002462761476635933 -0.000667524232994765 -0.002462761476635933 -0.013479209505021572 0.002256503328680992 -0.000667524232994765 0.002256503328680992 -0.010534295812249184" pbc="T T T"
Cu      -0.02588675       0.01638078       0.10685620      -0.18631846      -0.15414043      -0.63443655
Cu      -0.01059956       1.81630802       1.79430012      -0.29929259      -0.41188371       0.40146893
Cu       1.75595518      -0.10505040       1.84117889       0.21945965       0.67654967       0.07858358
Cu       1.74684448       1.77159699      -0.00862167       0.26615143      -0.11052553       0.15438408
4
Lattice="3.723441611773923 0.0 0.0 0.0 3.723441611773923 0.0 0.0 0.0 3.723441611773923" Properties=species:S:1:pos:R:3:forces:R:3 energy=-14.762584686279297 free_energy=-14.762584686279297 stress="0.05746067687869072 -0.0008380388608202338 -0.00102336669806391 -0.0008380388608202338 0.05555105209350586 0.001316606649197638 -0.00102336669806391 0.001316606649197638 0.057104676961898804" pbc="T T T"
Cu      -0.02673542       0.01691781       0.11035940       0.02807742      -0.04582872      -0.42974037
Cu      -0.01094706       1.87585431       1.85312491      -0.05069682      -0.27467036       0.29910159
Cu       1.81352285      -0.10849440       1.90154055       0.14251387       0.53212678       0.07190637
Cu       1.86980986       1.86225094       0.00484916      -0.11989446      -0.21162760       0.05873245
4
Lattice="3.723441611773923 0.0 0.0 0.0 3.723441611773923 0.0 0.0 0.0 3.723441611773923" Properties=species:S:1:pos:R:3:forces:R:3 energy=-14.761072158813477 free_energy=-14.761072158813477 stress="0.0595414862036705 -0.0011370639549568295 -0.001970857148990035 -0.0011370639549568295 0.05364805832505226 0.0013229182222858071 -0.001970857148990035 0.0013229182222858071 0.05725086107850075" pbc="T T T"
Cu      -0.03853192       0.00557244       0.12715800       0.00281934      -0.02430245      -0.40971744
Cu       0.00381301       1.86287392       1.83829622      -0.18880245      -0.12995428       0.40874869
Cu       1.77866452      -0.05924638       1.96180569       0.29990590       0.28570592      -0.15947774
Cu       1.86980986       1.86225094       0.00484916      -0.11392277      -0.13144921       0.16044644
4
Lattice="3.723441611773923 0.0 0.0 0.0 3.723441611773923 0.0 0.0 0.0 3.723441611773923" Properties=species:S:1:pos:R:3:forces:R:3 energy=-14.76911735534668 free_energy=-14.76911735534668 stress="0.05785521864891052 -0.0005406239652074873 -0.0020527439191937447 -0.0005406239652074873 0.05577518045902252 0.0018461786676198244 -0.0020527439191937447 0.0018461786676198244 0.057771991938352585" pbc="T T T"
Cu      -0.10095202       0.00678190       0.06022529       0.41278422      -0.03720189       0.12085418
Cu       0.00397937       1.85860907       1.91035521      -0.07270214      -0.10638742      -0.07131885
Cu       1.83130200      -0.06004680       1.98490186      -0.08503729       0.27974969      -0.42416799
Cu       1.86980986       1.86225094       0.00484916      -0.25504476      -0.13616039       0.37463269
4
Lattice="3.6368296332762173 0.0 0.0 0.0 3.6368296332762173 0.0 0.0 0.0 3.6368296332762173" Properties=species:S:1:pos:R:3:forces:R:3 energy=-14.88509464263916 free_energy=-14.88509464263916 stress="0.010438846424221992 -0.003399905050173402 -0.0023072422482073307 -0.003399905050173402 0.008001970127224922 0.0017359787598252296 -0.0023072422482073307 0.0017359787598252296 0.010649963282048702" pbc="T T T"
Cu      -0.09745201      -0.08674513       0.06648007       0.56126261       0.55478120       0.09049971
Cu       0.00388681       1.81537547       1.86591792      -0.07390325      -0.35220999      -0.08077432
Cu       1.79022011      -0.03070299       1.92810196      -0.12657231       0.20335215      -0.47026575
Cu       1.82631571       1.81893261       0.00473637      -0.36078703      -0.40592337       0.46054035
4