4
Lattice="3.61 0.0 0.0 0.0 3.61 0.0 0.0 0.0 3.61" Properties=species:S:1:pos:R:3:forces:R:3 energy=-14.968303680419922 free_energy=-14.968303680419922 stress="-0.00243180594407022 6.021085937391035e-06 2.3518065006555844e-07 6.021085937391035e-06 -0.0024247372057288885 -1.2420817938618711e-06 2.3518065006555844e-07 -1.2420817938618711e-06 -0.002435194794088602" pbc="T T T"
Cu       0.00000000       0.00000000       0.00000000      -0.00000008       0.00000002      -0.00000001
Cu       0.00000000       1.80500000       1.80500000      -0.00000002      -0.00000002       0.00000001
Cu       1.80500000       0.00000000       1.80500000       0.00000006       0.00000002       0.00000008
Cu       1.80500000       1.80500000       0.00000000       0.00000005      -0.00000003      -0.00000007
4
Lattice="3.61 0.0 0.0 0.0 3.61 0.0 0.0 0.0 3.61" Properties=species:S:1:pos:R:3:forces:R:3 energy=-14.902959823608398 free_energy=-14.902959823608398 stress="-0.00833408534526825 -0.0044606830924749374 0.0005141572910360992 -0.0044606830924749374 -0.008218959905207157 0.0005677973967976868 0.0005141572910360992 0.0005677973967976868 -0.006107963155955076" pbc="T T T"
Cu       0.00000000       0.00000000       0.00000000      -0.18125644       0.20829344       0.12400617
Cu       0.05421627       1.86138020       1.79720003      -0.56950700      -0.59773552       0.04173107
Cu       1.75701877      -0.05217770       1.84772029       0.55077636       0.58609748      -0.29033694
Cu       1.80500000       1.80500000       0.00000000       0.19998707      -0.19665557       0.12459976
4
Lattice="3.61 0.0 0.0 0.0 3.61 0.0 0.0 0.0 3.61" Properties=species:S:1:pos:R:3:forces:R:3 energy=-14.83775520324707 free_energy=-14.83775520324707 stress="-0.015007421374320984 -0.009045369923114777 0.003662720788270235 -0.009045369923114777 -0.013131923042237759 -0.0021243831142783165 0.003662720788270235 -0.0021243831142783165 -0.009014008566737175" pbc="T T T"
Cu       0.01296169       0.01378916      -0.00092064      -0.28289416       0.16298807       0.16575642
Cu       0.10057521       1.89962327       1.80952852      -0.95771515      -0.86410052       0.18747076
Cu       1.75701877      -0.05217770       1.84772029       0.82073706       0.69283926      -0.06885457
Cu       1.80420303       1.78079245       0.06386641       0.41987255       0.00827332      -0.28437263
4
Lattice="3.61 0.0 0.0 0.0 3.61 0.0 0.0 0.0 3.61" Properties=species:S:1:pos:R:3:forces:R:3 energy=-14.885186195373535 free_energy=-14.885186195373535 stress="-0.009007168933749199 -0.004815633874386549 0.002101319842040539 -0.004815633874386549 -0.010179085657000542 -0.0011703456984832883 0.002101319842040539 -0.0011703456984832883 -0.007242776453495026" pbc="T T T"
Cu       0.01296169       0.01378916      -0.00092064      -0.19742143       0.08937380       0.11205338
Cu       0.09709358       1.88046517       1.83890067      -0.79021275      -0.58508503      -0.00270244
Cu       1.78014413      -0.02429642       1.80387377       0.59097421       0.38039148       0.22010121
Cu       1.80436285       1.78011601       0.06410914       0.39666015       0.11531980      -0.32945216
4
Lattice="3.61 0.0 0.0 0.0 3.61 0.0 0.0 0.0 3.61" Properties=species:S:1:pos:R:3:forces:R:3 energy=-14.86462688446045 free_energy=-14.86462688446045 stress="-0.010800018906593323 -0.005803689826279879 0.002777527552098036 -0.005803689826279879 -0.011644965969026089 -0.0011356869945302606 0.002777527552098036 -0.0011356869945302606 -0.008728223852813244" pbc="T T T"
Cu       0.01296169       0.01378916      -0.00092064      -0.20323461       0.11715752       0.07990281
Cu       0.11673693       1.88800121       1.82867208      -0.94236100      -0.64575458       0.06694398
Cu       1.78186138      -0.02320590       1.80488381       0.66135859       0.41937560       0.20954446
Cu       1.80202989       1.78109582       0.06234997       0.48423725       0.10922132      -0.35639119
4
Lattice="3.61 0.0 0.0 0.0 3.61 0.0 0.0 0.0 3.61" Properties=species:S:1:pos:R:3:forces:R:3 energy=-14.849247932434082 free_energy=-14.849247932434082 stress="-0.010989103466272354 -0.004985264968127012 5.079286711406894e-05 -0.004985264968127012 -0.013545612804591656 0.000342249171808362 5.079286711406894e-05 0.000342249171808362 -0.010630171746015549" pbc="T T T"
Cu       0.01296169       0.01378916      -0.00092064      -0.31926596       0.15349013      -0.10038091
Cu       0.11673693       1.88800121       1.82867208      -1.03770423      -0.54965162      -0.06236842
Cu       1.75882786       0.00399995       1.75290440       0.81091309       0.26991987       0.43119022
Cu       1.79332430       1.79307147       0.02443648       0.54605711       0.12624177      -0.26844078
4
Lattice="3.61 0.0 0.0 0.0 3.61 0.0 0.0 0.0 3.61" Properties=species:S:1:pos:R:3:forces:R:3 energy=-14.873092651367188 free_energy=-14.873092651367188 stress="-0.0099193025380373 -0.001381237292662263 0.0026180818676948547 -0.001381237292662263 -0.00950117502361536 0.0012541802134364843 0.0026180818676948547 0.0012541802134364843 -0.008931150659918785" pbc="T T T"
Cu      -0.05700489       0.03851178       0.01058582       0.31812236      -0.02328143      -0.18371966
Cu       0.11673693       1.88800121       1.82867208      -0.87101197      -0.39445597      -0.02342279
Cu       1.79899241       0.01474782       1.75240467       0.26463461       0.16192782       0.48074841
Cu       1.79332430       1.79307147       0.02443648       0.28825504       0.25580966      -0.27360594
4
Lattice="3.61 0.0 0.0 0.0 3.61 0.0 0.0 0.0 3.61" Properties=species:S:1:pos:R:3:forces:R:3 energy=-14.878490447998047 free_energy=-14.878490447998047 stress="-0.00891158077865839 -0.00016673849313519895 0.002282982226461172 -0.00016673849313519895 -0.009745368734002113 0.0018070390215143561 0.002282982226461172 0.0018070390215143561 -0.008597848005592823" pbc="T T T"
Cu      -0.05700489       0.03851178       0.01058582       0.27152085      -0.02525081      -0.17829069
Cu       0.10849440       1.88869379       1.82851832      -0.85184538      -0.31122309      -0.02313220
Cu       1.78591195       0.03799525       1.75350847       0.31883341      -0.00495099       0.47513607
Cu       1.79332430       1.79307147       0.02443648       0.26149106       0.34142500      -0.27371320
4
Lattice="3.61 0.0 0.0 0.0 3.61 0.0 0.0 0.0 3.61" Properties=species:S:1:pos:R:3:forces:R:3 energy=-14.851590156555176 free_energy=-14.851590156555176 stress="-0.011826777830719948 -0.002342330990359187 -0.00043401180300861597 -0.002342330990359187 -0.012334227561950684 4.8522815632168204e-05 -0.00043401180300861597 4.8522815632168204e-05 -0.008464796468615532" pbc="T T T"
Cu      -0.05700489       0.03851178       0.01058582       0.28284109       0.07124916       0.13602965
Cu       0.09447242       1.91993785       1.90172964      -0.76763505      -0.62773460      -0.60243481
Cu       1.77240847       0.01688682       1.76627618       0.37922886       0.24679869       0.30302757
Cu       1.81079576       1.78564653       0.00726674       0.10556515       0.30968654       0.16337749
4
Lattice="3.61 0.0 0.0 0.0 3.61 0.0 0.0 0.0 3.61" Properties=species:S:1:pos:R:3:forces:R:3 energy=-14.84489631652832 free_energy=-14.84489631652832 stress="-0.011705340817570686 0.0004326295747887343 0.0008475782233290374 0.0004326295747887343 -0.01223406009376049 0.001506354077719152 0.0008475782233290374 0.001506354077719152 -0.009827087633311749" pbc="T T T"
Cu      -0.05700489       0.03851178       0.01058582       0.40514195      -0.03885127       0.09274303
Cu       0.09447242       1.91993785       1.90172964      -0.64022601      -0.58987010      -0.56298780
Cu       1.79957049       0.02176965       1.75572595       0.17787842       0.08431475       0.42705864
Cu       1.81491745       1.75603600       0.01748144       0.05720574       0.54440695       0.04318617
4
Lattice="3.61 0.0 0.0 0.0 3.61 0.0 0.0 0.0 3.61" Properties=species:S:1:pos:R:3:forces:R:3 energy=-14.780447006225586 free_energy=-14.780447006225586 stress="-0.014925526455044746 -0.0033349955920130014 0.001989183248952031 -0.0033349955920130014 -0.019155016168951988 -0.00019024226639885455 0.001989183248952031 -0.00019024226639885455 -0.013871336355805397" pbc="T T T"
Cu      -0.05700489       0.03851178       0.01058582       0.44906485       0.11862060       0.14520150
Cu       0.18551301       1.92206401       1.91000495      -1.23286045      -0.63865340      -0.49842268
Cu       1.80441227       0.02653620       1.76693303       0.48980185       0.27212176       0.45567095
Cu       1.82923296       1.79988422       0.05282781       0.29399353       0.24791098      -0.10244983
4
Lattice="3.61 0.0 0.0 0.0 3.61 0.0 0.0 0.0 3.61" Properties=species:S:1:pos:R:3:forces:R:3 energy=-14.839492797851562 free_energy=-14.839492797851562 stress="-0.010355193167924881 -0.0033984521869570017 0.00029317286680452526 -0.0033984521869570017 -0.014437170699238777 0.00012059121218044311 0.00029317286680452526 0.00012059121218044311 -0.012391961179673672" pbc="T T T"
Cu       0.04377967       0.00269730       0.01855680      -0.24882817       0.28390488      -0.05136319
Cu       0.16275301       1.89658056       1.86624396      -1.05759430      -0.56040668      -0.15619501
Cu       1.80441227       0.02653620       1.76693303       0.75083721       0.16041371       0.50039911
Cu       1.83027143       1.80073394       0.05400299       0.55558538       0.11608823      -0.29284090
4
Lattice="3.61 0.0 0.0 0.0 3.61 0.0 0.0 0.0 3.61" Properties=species:S:1:pos:R:3:forces:R:3 energy=-14.780879020690918 free_energy=-14.780879020690918 stress="-0.015843024477362633 2.3322520519286627e-06 0.0037709856405854225 2.3322520519286627e-06 -0.019995803013443947 0.0001577038929099217 0.0037709856405854225 0.0001577038929099217 -0.015659457072615623" pbc="T T T"
Cu       0.04989438      -0.00936636       0.01301200      -0.35118321       0.06752951      -0.07180288
Cu       0.22132739       1.81093652       1.81984723      -1.56298816      -0.06351948       0.17824712
Cu       1.78772261       0.00296875       1.79823456       1.10259390      -0.00899997       0.27723831
Cu       1.83027143       1.80073394       0.05400299       0.81157762       0.00498995      -0.38368255
4
Lattice="3.61 0.0 0.0 0.0 3.61 0.0 0.0 0.0 3.61" Properties=species:S:1:pos:R:3:forces:R:3 energy=-14.77086353302002 free_energy=-14.77086353302002 stress="-0.015797028318047523 -0.0005698180757462978 0.0058293333277106285 -0.0005698180757462978 -0.021815504878759384 0.0020907255820930004 0.0058293333277106285 0.0020907255820930004 -0.016037559136748314" pbc="T T T"
Cu       0.06610905      -0.00371426       0.01619550      -0.34037715       0.01834838      -0.16801104
Cu       0.22141756       1.83436935       1.82322002      -1.44145918      -0.15061127       0.31308800
Cu       1.79808329       0.01793194       1.77633902       1.08039999      -0.12419480       0.57183814
Cu       1.85567015       1.77533680       0.08943402       0.70143682       0.25645769      -0.71691513
4
Lattice="3.61 0.0 0.0 0.0 3.61 0.0 0.0 0.0 3.61" Properties=species:S:1:pos:R:3:forces:R:3 energy=-14.74485969543457 free_energy=-14.74485969543457 stress="-0.018814334645867348 -0.0016629345482215285 0.0029327194206416607 -0.0016629345482215285 -0.02345220372080803 0.002375468611717224 0.0029327194206416607 0.002375468611717224 -0.018560636788606644" pbc="T T T"
Cu       0.09743945       0.01955534       0.05112548      -0.57534885      -0.14056647      -0.42400229
Cu       0.22141756       1.83436935       1.82322002      -1.44484878      -0.07144944       0.43437156
Cu       1.79808329       0.01793194       1.77633902       1.20546603      -0.12891474       0.71114182
Cu       1.85567015       1.77533680       0.08943402       0.81473213       0.34093058      -0.72151113
4
Lattice="3.61 0.0 0.0 0.0 3.61 0.0 0.0 0.0 3.61" Properties=species:S:1:pos:R:3:forces:R:3 energy=-14.759415626525879 free_energy=-14.759415626525879 stress="-0.018271880224347115 -0.0004990752204321325 0.005728148855268955 -0.0004990752204321325 -0.02263030968606472 0.0019394551636651158 0.005728148855268955 0.0019394551636651158 -0.015211599878966808" pbc="T T T"
Cu       0.04034827       0.06058411       0.03773176      -0.16073394      -0.41541043      -0.31299061
Cu       0.22141756       1.83436935       1.82322002      -1.43845677       0.06864966       0.38687691
Cu       1.79808329       0.01793194       1.77633902       0.99041003      -0.13700445       0.64572096
Cu       1.85567015       1.77533680       0.08943402       0.60878098       0.48376524      -0.71960735
4
Lattice="3.61 0.0 0.0 0.0 3.61 0.0 0.0 0.0 3.61" Properties=species:S:1:pos:R:3:forces:R:3 energy=-14.76922607421875 free_energy=-14.76922607421875 stress="-0.0171879343688488 -0.001111689256504178 0.0027279474306851625 -0.001111689256504178 -0.022837165743112564 0.0006242491654120386 0.0027279474306851625 0.0006242491654120386 -0.014514485374093056" pbc="T T T"
Cu       0.10115191       0.04245944       0.04988257      -0.43096673      -0.17879698      -0.41848224
Cu       0.22141756       1.83436935       1.82322002      -1.27266717      -0.00282975       0.45922971
Cu       1.79808329       0.01793194       1.77633902       1.20723891      -0.01058913       0.74816632
Cu       1.90312876       1.80761109       0.10314333       0.49639481       0.19221584      -0.78891397
4
Lattice="3.61 0.0 0.0 0.0 3.61 0.0 0.0 0.0 3.61" Properties=species:S:1:pos:R:3:forces:R:3 energy=-14.755192756652832 free_energy=-14.755192756652832 stress="-0.018362658098340034 0.0010436320444568992 0.004377951845526695 0.0010436320444568992 -0.023469220846891403 -0.0006706816493533552 0.004377951845526695 -0.0006706816493533552 -0.015547959133982658" pbc="T T T"
Cu       0.06197342       0.03685042       0.07447945      -0.03546322      -0.27218300      -0.68415743
Cu       0.22740438       1.79549812       1.83755580      -1.16125536       0.20657662       0.45773509
Cu       1.83343732       0.00162980       1.73073797       0.82886714      -0.05482495       1.13770580
Cu       1.90312876       1.80761109       0.10314333       0.36785138       0.12043139      -0.91128337
4
Lattice="3.61 0.0 0.0 0.0 3.61 0.0 0.0 0.0 3.61" Properties=species:S:1:pos:R:3:forces:R:3 energy=-14.752616882324219 free_energy=-14.752616882324219 stress="-0.018650485202670097 0.0007349054212681949 0.0032654372043907642 0.0007349054212681949 -0.02358497865498066 0.00013914168812334538 0.0032654372043907642 0.00013914168812334538 -0.01595263183116913" pbc="T T T"
Cu       0.07967401      -0.05499374       0.07061685      -0.16526653       0.34590125      -0.66263986
Cu       0.22740438       1.79549812       1.83755580      -1.16371822      -0.11113629       0.44509065
Cu       1.83343732       0.00162980       1.73073797       0.89927685      -0.03094894       1.12766433
Cu       1.90312876       1.80761109       0.10314333       0.42970830      -0.20381603      -0.91011500
4
Lattice="3.61 0.0 0.0 0.0 3.61 0.0 0.0 0.0 3.61" Properties=species:S:1:pos:R:3:forces:R:3 energy=-14.700901985168457 free_energy=-14.700901985168457 stress="-0.02381373941898346 -0.0028145182877779007 0.00483373599126935 -0.0028145182877779007 -0.026931215077638626 0.003074820851907134 0.00483373599126935 0.003074820851907134 -0.01928403228521347" pbc="T T T"
Cu       0.03163234      -0.13520383       0.09854454       0.21413453       0.97786641      -0.90686965
Cu       0.19524327       1.81029229       1.82777767      -0.91289461      -0.52095467       0.62599564
Cu       1.83343732       0.00162980       1.73073797       0.58646929       0.05530113       1.22026038
Cu       1.90312876       1.80761109       0.10314333       0.11229090      -0.51221281      -0.93938643
4
Lattice="3.61 0.0 0.0 0.0 3.61 0.0 0.0 0.0 3.61" Properties=species:S:1:pos:R:3:forces:R:3 energy=-14.582963943481445 free_energy=-14.582963943481445 stress="-0.027901405468583107 -0.000769882055465132 0.014273572713136673 -0.000769882055465132 -0.03966895490884781 0.0010267822071909904 0.014273572713136673 0.0010267822071909904 -0.02909904718399048" pbc="T T T"
Cu       0.04102988      -0.13303103       0.03363032       0.04741468       0.93677855      -0.45601267
Cu       0.19524327       1.81029229       1.82777767      -1.12196136      -0.49599171       0.84934682
Cu       1.83343732       0.00162980       1.73073797       0.62186623       0.06253356       1.44148648
Cu       1.87814517       1.81057959       0.21746973       0.45268029      -0.50332040      -1.83482051
4
Lattice="3.61 0.0 0.0 0.0 3.61 0.0 0.0 0.0 3.61" Properties=species:S:1:pos:R:3:forces:R:3 energy=-14.527595520019531 free_energy=-14.527595520019531 stress="-0.03319817781448364 -0.004330117255449295 0.008948645554482937 -0.004330117255449295 -0.04436064884066582 -0.00591681944206357 0.008948645554482937 -0.00591681944206357 -0.033816054463386536" pbc="T T T"
Cu       0.09705343      -0.11305978       0.04785592      -0.56937408       0.81348598      -0.56106752
Cu       0.19524327       1.81029229       1.82777767      -1.34937453      -0.71258533       0.90858591
Cu       1.78264875      -0.05701662       1.74209353       1.22611558       0.65797305       1.46781909
Cu       1.87814517       1.81057959       0.21746973       0.69263256      -0.75887382      -1.81533706
4
Lattice="3.61 0.0 0.0 0.0 3.61 0.0 0.0 0.0 3.61" Properties=species:S:1:pos:R:3:forces:R:3 energy=-14.506915092468262 free_energy=-14.506915092468262 stress="-0.03398945555090904 -0.008892170153558254 0.005325571168214083 -0.008892170153558254 -0.04508304223418236 -0.005986593198031187 0.005325571168214083 -0.005986593198031187 -0.03737807646393776" pbc="T T T"
Cu       0.09705343      -0.11305978       0.04785592      -0.56850827       1.06772077      -0.55530977
Cu       0.16155592       1.87848833       1.83237101      -1.11943007      -1.22617865       0.84593844
Cu       1.78264875      -0.05701662       1.74209353       1.15768194       0.94062442       1.46416497
Cu       1.87814517       1.81057959       0.21746973       0.53025585      -0.78216672      -1.75479341
4
Lattice="3.61 0.0 0.0 0.0 3.61 0.0 0.0 0.0 3.61" Properties=species:S:1:pos:R:3:forces:R:3 energy=-14.661776542663574 free_energy=-14.661776542663574 stress="-0.024223802611231804 -0.002237837528809905 -0.005346828140318394 -0.002237837528809905 -0.02998957969248295 -0.006139347795397043 -0.005346828140318394 -0.006139347795397043 -0.025719836354255676" pbc="T T T"
Cu       0.05696403      -0.06500551       0.04945091      -0.24292460       0.55142903      -0.60269558
Cu       0.03488001       1.82710158       1.81228916      -0.03699300      -0.59028494       0.94273621
Cu       1.78264875      -0.05701662       1.74209353       0.46826670       0.63487047       1.46546078
Cu       1.87814517       1.81057959       0.21746973      -0.18834914      -0.59601450      -1.80550146
4
Lattice="3.61 0.0 0.0 0.0 3.61 0.0 0.0 0.0 3.61" Properties=species:S:1:pos:R:3:forces:R:3 energy=-14.731125831604004 free_energy=-14.731125831604004 stress="-0.019461611285805702 -0.0032779094763100147 -0.007085046730935574 -0.0032779094763100147 -0.02298831194639206 -0.0006123118218965828 -0.007085046730935574 -0.0006123118218965828 -0.0207857396453619" pbc="T T T"
Cu       0.05696403      -0.06500551       0.04945091      -0.10833672       0.40200615      -0.59629130
Cu       0.03488001       1.82710158       1.81228916       0.11376840      -0.57718563       0.80823100
Cu       1.78264875      -0.05701662       1.74209353       0.46391463       0.37593096       1.27026141
Cu       1.91706729       1.76619922       0.17798507      -0.46934620      -0.20075160      -1.48220086
4
Lattice="3.61 0.0 0.0 0.0 3.61 0.0 0.0 0.0 3.61" Properties=species:S:1:pos:R:3:forces:R:3 energy=-14.717985153198242 free_energy=-14.717985153198242 stress="-0.021959668025374413 -0.0006204952951520681 -0.011805875226855278 -0.0006204952951520681 -0.021688176319003105 -0.0011078107636421919 -0.011805875226855278 -0.0011078107636421919 -0.022600455209612846" pbc="T T T"
Cu       0.05696403      -0.06500551       0.04945091      -0.10207759       0.16433066      -0.69287121
Cu       0.00106754       1.76027197       1.78280462       0.41663885      -0.11906323       1.05092311
Cu       1.78264875      -0.05701662       1.74209353       0.33557206       0.13468479       1.27758384
Cu       1.91706729       1.76619922       0.17798507      -0.65013313      -0.17995217      -1.63563538
4
Lattice="3.61 0.0 0.0 0.0 3.61 0.0 0.0 0.0 3.61" Properties=species:S:1:pos:R:3:forces:R:3 energy=-14.75643253326416 free_energy=-14.75643253326416 stress="-0.018162522464990616 -0.0007779431180097163 -0.004677813500165939 -0.0007779431180097163 -0.0212087519466877 0.0053146774880588055 -0.004677813500165939 0.0053146774880588055 -0.018559318035840988" pbc="T T T"
Cu       0.01500276      -0.09033841       0.04879306      -0.02147227       0.12552691      -0.67564189
Cu       0.00106754       1.76027197       1.78280462       0.12952867      -0.19094151       0.97029102
Cu       1.78264875      -0.05701662       1.74209353       0.19686107      -0.15941572       1.25565565
Cu       1.85417606       1.70523984       0.17136734      -0.30491751       0.22483036      -1.55030477
4
Lattice="3.61 0.0 0.0 0.0 3.61 0.0 0.0 0.0 3.61" Properties=species:S:1:pos:R:3:forces:R:3 energy=-14.8541259765625 free_energy=-14.8541259765625 stress="-0.012559261173009872 0.0011441741371527314 0.0009094309061765671 0.0011441741371527314 -0.011299005709588528 2.5557098979334114e-06 0.0009094309061765671 2.5557098979334114e-06 -0.011342191137373447" pbc="T T T"
Cu       0.01500276      -0.09033841       0.04879306      -0.50246024       0.41584355      -0.42348343
Cu       0.00106754       1.76027197       1.78280462      -0.42062706      -0.22294864       0.74987602
Cu       1.73379551      -0.05848783       1.81188250       0.55397511       0.20949897       0.55640596
Cu       1.76534798       1.78648829       0.11747527       0.36911204      -0.40239388      -0.88279873
4
Lattice="3.61 0.0 0.0 0.0 3.61 0.0 0.0 0.0 3.61" Properties=species:S:1:pos:R:3:forces:R:3 energy=-14.919660568237305 free_energy=-14.919660568237305 stress="-0.006420458666980267 -0.00041171288467012346 -0.001725193578749895 -0.00041171288467012346 -0.005424944683909416 -0.0008836284978315234 -0.001725193578749895 -0.0008836284978315234 -0.006511883810162544" pbc="T T T"
Cu       0.01500276      -0.09033841       0.04879306      -0.18343967       0.28801540      -0.17675924
Cu      -0.01271793       1.73501291       1.84918254       0.00289908      -0.03901748       0.13937491
Cu       1.73379551      -0.05848783       1.81188250       0.48838833       0.07857653       0.38969651
Cu       1.85278906       1.77798873       0.07639938      -0.30784759      -0.32757437      -0.35231227
4
Lattice="3.61 0.0 0.0 0.0 3.61 0.0 0.0 0.0 3.61" Properties=species:S:1:pos:R:3:forces:R:3 energy=-14.875542640686035 free_energy=-14.875542640686035 stress="-0.010793909430503845 0.0014207230415195227 -0.004623877350240946 0.0014207230415195227 -0.008618111722171307 -2.023673187068198e-05 -0.004623877350240946 -2.023673187068198e-05 -0.009736056439578533" pbc="T T T"
Cu       0.06955207      -0.11826159       0.10053925      -0.54611349       0.45611107      -0.55811262
Cu       0.03260671       1.72868337       1.84095957      -0.27388823      -0.07445285       0.37589526
Cu       1.74729015      -0.05297407       1.82046081       0.77204061       0.02383701       0.54202020
Cu       1.85278906       1.77798873       0.07639938       0.04796103      -0.40549523      -0.35980284
4
Lattice="3.61 0.0 0.0 0.0 3.61 0.0 0.0 0.0 3.61" Properties=species:S:1:pos:R:3:forces:R:3 energy=-14.865389823913574 free_energy=-14.865389823913574 stress="-0.007727402728050947 -0.0022878802847117186 -0.0009825945599004626 -0.0022878802847117186 -0.009074327535927296 -0.0008547300240024924 -0.0009825945599004626 -0.0008547300240024924 -0.014376010745763779" pbc="T T T"
Cu       0.07957971      -0.14855792       0.03383716      -0.71042484       0.71584243      -0.00014274
Cu       0.00720108       1.80867654       1.85637444      -0.23651278      -0.73010898      -0.13995117
Cu       1.74729015      -0.05297407       1.82046081       0.70659423       0.08424249       0.11429010
Cu       1.81673661       1.71080579       0.02940691       0.24034369      -0.06997600       0.02580377
4
Lattice="3.61 0.0 0.0 0.0 3.61 0.0 0.0 0.0 3.61" Properties=species:S:1:pos:R:3:forces:R:3 energy=-14.820584297180176 free_energy=-14.820584297180176 stress="-0.014690008014440536 0.004566063638776541 -0.0017589323688298464 0.004566063638776541 -0.013044859282672405 -0.0016039481852203608 -0.0017589323688298464 -0.0016039481852203608 -0.014858203940093517" pbc="T T T"
Cu       0.07957971      -0.14855792       0.03383716      -0.82614684       1.10533762      -0.01100671
Cu       0.00720108       1.80867654       1.85637444      -0.29691362      -0.71251249      -0.24691519
Cu       1.76261967      -0.04393269       1.81453011       0.60223329       0.36638364       0.04919805
Cu       1.78408273       1.80987222      -0.00061326       0.52082705      -0.75920904       0.20872386
4
Lattice="3.61 0.0 0.0 0.0 3.61 0.0 0.0 0.0 3.61" Properties=species:S:1:pos:R:3:forces:R:3 energy=-14.810197830200195 free_energy=-14.810197830200195 stress="-0.012890380807220936 0.0013164898846298456 -0.0023397505283355713 0.0013164898846298456 -0.013647574000060558 -0.004787103272974491 -0.0023397505283355713 -0.004787103272974491 -0.017915355041623116" pbc="T T T"
Cu       0.07957971      -0.14855792       0.03383716      -0.79624653       1.03935802       0.17705697
Cu       0.00012111       1.84078533       1.89931811      -0.26695889      -0.94283843      -0.54651833
Cu       1.76261967      -0.04393269       1.81453011       0.58226877       0.29560241       0.07459503
Cu       1.78157018       1.75785808       0.00899738       0.48093659      -0.39212161       0.29486644
4
Lattice="3.61 0.0 0.0 0.0 3.61 0.0 0.0 0.0 3.61" Properties=species:S:1:pos:R:3:forces:R:3 energy=-14.810487747192383 free_energy=-14.810487747192383 stress="-0.013051379472017288 0.0014663668116554618 -0.0028061664197593927 0.0014663668116554618 -0.013363650999963284 -0.004225479904562235 -0.0028061664197593927 -0.004225479904562235 -0.017919879406690598" pbc="T T T"
Cu       0.07716868      -0.15200788       0.04311665      -0.77495754       1.05924284       0.09500632
Cu       0.00012111       1.84078533       1.89931811      -0.25848210      -0.95282710      -0.50717431
Cu       1.76472941      -0.04447757       1.81168421       0.56058043       0.29949689       0.12968835
Cu       1.78157018       1.75785808       0.00899738       0.47285908      -0.40591267       0.28247970
4
Lattice="3.61 0.0 0.0 0.0 3.61 0.0 0.0 0.0 3.61" Properties=species:S:1:pos:R:3:forces:R:3 energy=-14.769560813903809 free_energy=-14.769560813903809 stress="-0.016384044662117958 -3.4125543606933206e-05 -0.005400035995990038 -3.4125543606933206e-05 -0.014837784692645073 0.000738436181563884 -0.005400035995990038 0.000738436181563884 -0.022552553564310074" pbc="T T T"
Cu       0.10994724      -0.13890387       0.05835761      -1.17799306       0.96630323      -0.34786755
Cu      -0.02139388       1.84421694       1.85003184      -0.26970726      -0.93430150      -0.05693211
Cu       1.72275166      -0.04873530       1.79462366       0.92845035       0.35319322       0.36112246
Cu       1.78157018       1.75785808       0.00899738       0.51924968      -0.38519490       0.04367719
4
Lattice="3.61 0.0 0.0 0.0 3.61 0.0 0.0 0.0 3.61" Properties=species:S:1:pos:R:3:forces:R:3 energy=-14.752251625061035 free_energy=-14.752251625061035 stress="-0.017717737704515457 0.0007756903651170433 -0.006087152287364006 0.0007756903651170433 -0.01614035852253437 0.001746209803968668 -0.006087152287364006 0.001746209803968668 -0.02392204850912094" pbc="T T T"
Cu       0.10994724      -0.13890387       0.05835761      -1.12925828       1.09266174      -0.46821395
Cu      -0.03121048       1.86425817       1.83662300      -0.15097292      -1.06848335       0.08237150
Cu       1.73433846      -0.04642801       1.77995825       0.81886643       0.45148045       0.49952325
Cu       1.78585431       1.77105869       0.01775799       0.46136504      -0.47565883      -0.11368082
4
Lattice="3.61 0.0 0.0 0.0 3.61 0.0 0.0 0.0 3.61" Properties=species:S:1:pos:R:3:forces:R:3 energy=-14.802841186523438 free_energy=-14.802841186523438 stress="-0.014621572569012642 0.006429556757211685 -0.0029132438357919455 0.006429556757211685 -0.015052098780870438 0.0003014405083376914 -0.0029132438357919455 0.0003014405083376914 -0.015656007453799248" pbc="T T T"
Cu       0.11469006      -0.14548074      -0.00010226      -0.91722369       0.99855542      -0.17693807
Cu      -0.08427839       1.82532693       1.79128453       0.45061079      -0.86698747       0.17200261
Cu       1.79369511      -0.06333737       1.77481854       0.17984158       0.43110096       0.28330958
Cu       1.78585431       1.77105869       0.01775799       0.28677130      -0.56266904      -0.27837405
4
Lattice="3.61 0.0 0.0 0.0 3.61 0.0 0.0 0.0 3.61" Properties=species:S:1:pos:R:3:forces:R:3 energy=-14.797200202941895 free_energy=-14.797200202941895 stress="-0.014949118718504906 0.006773086730390787 -0.002470423001796007 0.006773086730390787 -0.015480362810194492 -0.0001977125066332519 -0.002470423001796007 -0.0001977125066332519 -0.01624123752117157" pbc="T T T"
Cu       0.11095162      -0.15565721      -0.00910785      -0.89538491       1.07530832      -0.10728170
Cu      -0.08427839       1.82532693       1.79128453       0.44715232      -0.90404528       0.12569913
Cu       1.79369511      -0.06333737       1.77481854       0.16419713       0.43507421       0.23745170